# vtk DataFile Version 5.1
vtk output
ASCII
DATASET UNSTRUCTURED_GRID
POINTS 1558 double
0 0 0 1 0 0 2 0 0 
3 0 0 4 0 0 5 0 0 
6 0 0 7 0 0 8 0 0 
9 0 0 10 0 0 11 0 0 
12 0 0 13 0 0 14 0 0 
15 0 0 16 0 0 17 0 0 
18 0 0 19 0 0 20 0 0 
21 0 0 22 0 0 23 0 0 
24 0 0 25 0 0 26 0 0 
0 1 0 1 1 0 2 1 0 
3 1 0 4 1 0 5 1 0 
6 1 0 7 1 0 8 1 0 
9 1 0 10 1 0 11 1 0 
12 1 0 13 1 0 14 1 0 
15 1 0 16 1 0 17 1 0 
18 1 0 19 1 0 20 1 0 
21 1 0 22 1 0 23 1 0 
24 1 0 25 1 0 26 1 0 
0 2 0 1 2 0 2 2 0 
3 2 0 4 2 0 5 2 0 
6 2 0 7 2 0 8 2 0 
9 2 0 10 2 0 11 2 0 
12 2 0 13 2 0 14 2 0 
15 2 0 16 2 0 17 2 0 
18 2 0 19 2 0 20 2 0 
21 2 0 22 2 0 23 2 0 
24 2 0 25 2 0 26 2 0 
0 3 0 1 3 0 2 3 0 
3 3 0 4 3 0 5 3 0 
6 3 0 7 3 0 8 3 0 
9 3 0 10 3 0 11 3 0 
12 3 0 13 3 0 14 3 0 
15 3 0 16 3 0 17 3 0 
18 3 0 19 3 0 20 3 0 
21 3 0 22 3 0 23 3 0 
24 3 0 25 3 0 26 3 0 
0 4 0 1 4 0 2 4 0 
3 4 0 4 4 0 5 4 0 
6 4 0 7 4 0 8 4 0 
9 4 0 10 4 0 11 4 0 
12 4 0 13 4 0 14 4 0 
15 4 0 16 4 0 17 4 0 
18 4 0 19 4 0 20 4 0 
21 4 0 22 4 0 23 4 0 
24 4 0 25 4 0 26 4 0 
0 5 0 1 5 0 2 5 0 
3 5 0 4 5 0 5 5 0 
6 5 0 7 5 0 8 5 0 
9 5 0 10 5 0 11 5 0 
12 5 0 13 5 0 14 5 0 
15 5 0 16 5 0 17 5 0 
18 5 0 19 5 0 20 5 0 
21 5 0 22 5 0 23 5 0 
24 5 0 25 5 0 26 5 0 
0 0 1 1 0 1 2 0 1 
3 0 1 4 0 1 5 0 1 
6 0 1 7 0 1 8 0 1 
9 0 1 10 0 1 11 0 1 
12 0 1 13 0 1 14 0 1 
15 0 1 16 0 1 17 0 1 
18 0 1 19 0 1 20 0 1 
21 0 1 22 0 1 23 0 1 
24 0 1 25 0 1 26 0 1 
0 1 1 1 1 1 2 1 1 
3 1 1 4 1 1 5 1 1 
6 1 1 7 1 1 8 1 1 
9 1 1 10 1 1 11 1 1 
12 1 1 13 1 1 14 1 1 
15 1 1 16 1 1 17 1 1 
18 1 1 19 1 1 20 1 1 
21 1 1 22 1 1 23 1 1 
24 1 1 25 1 1 26 1 1 
0 2 1 1 2 1 2 2 1 
3 2 1 4 2 1 5 2 1 
6 2 1 7 2 1 8 2 1 
9 2 1 10 2 1 11 2 1 
12 2 1 13 2 1 14 2 1 
15 2 1 16 2 1 17 2 1 
18 2 1 19 2 1 20 2 1 
21 2 1 22 2 1 23 2 1 
24 2 1 25 2 1 26 2 1 
0 3 1 1 3 1 2 3 1 
3 3 1 4 3 1 5 3 1 
6 3 1 7 3 1 8 3 1 
9 3 1 10 3 1 11 3 1 
12 3 1 13 3 1 14 3 1 
15 3 1 16 3 1 17 3 1 
18 3 1 19 3 1 20 3 1 
21 3 1 22 3 1 23 3 1 
24 3 1 25 3 1 26 3 1 
0 4 1 1 4 1 2 4 1 
3 4 1 4 4 1 5 4 1 
6 4 1 7 4 1 8 4 1 
9 4 1 10 4 1 11 4 1 
12 4 1 13 4 1 14 4 1 
15 4 1 16 4 1 17 4 1 
18 4 1 19 4 1 20 4 1 
21 4 1 22 4 1 23 4 1 
24 4 1 25 4 1 26 4 1 
0 5 1 1 5 1 2 5 1 
3 5 1 4 5 1 5 5 1 
6 5 1 7 5 1 8 5 1 
9 5 1 10 5 1 11 5 1 
12 5 1 13 5 1 14 5 1 
15 5 1 16 5 1 17 5 1 
18 5 1 19 5 1 20 5 1 
21 5 1 22 5 1 23 5 1 
24 5 1 25 5 1 26 5 1 
0 0 2 1 0 2 2 0 2 
3 0 2 4 0 2 5 0 2 
6 0 2 7 0 2 8 0 2 
9 0 2 10 0 2 11 0 2 
12 0 2 13 0 2 14 0 2 
15 0 2 16 0 2 17 0 2 
18 0 2 19 0 2 20 0 2 
21 0 2 22 0 2 23 0 2 
24 0 2 25 0 2 26 0 2 
0 1 2 1 1 2 2 1 2 
3 1 2 4 1 2 5 1 2 
6 1 2 7 1 2 8 1 2 
9 1 2 10 1 2 11 1 2 
12 1 2 13 1 2 14 1 2 
15 1 2 16 1 2 17 1 2 
18 1 2 19 1 2 20 1 2 
21 1 2 22 1 2 23 1 2 
24 1 2 25 1 2 26 1 2 
0 2 2 1 2 2 2 2 2 
3 2 2 4 2 2 5 2 2 
6 2 2 7 2 2 8 2 2 
9 2 2 10 2 2 11 2 2 
12 2 2 13 2 2 14 2 2 
15 2 2 16 2 2 17 2 2 
18 2 2 19 2 2 20 2 2 
21 2 2 22 2 2 23 2 2 
24 2 2 25 2 2 26 2 2 
0 3 2 1 3 2 2 3 2 
3 3 2 4 3 2 5 3 2 
6 3 2 7 3 2 8 3 2 
9 3 2 10 3 2 11 3 2 
12 3 2 13 3 2 14 3 2 
15 3 2 16 3 2 17 3 2 
18 3 2 19 3 2 20 3 2 
21 3 2 22 3 2 23 3 2 
24 3 2 25 3 2 26 3 2 
0 4 2 1 4 2 2 4 2 
3 4 2 4 4 2 5 4 2 
6 4 2 7 4 2 8 4 2 
9 4 2 10 4 2 11 4 2 
12 4 2 13 4 2 14 4 2 
15 4 2 16 4 2 17 4 2 
18 4 2 19 4 2 20 4 2 
21 4 2 22 4 2 23 4 2 
24 4 2 25 4 2 26 4 2 
0 5 2 1 5 2 2 5 2 
3 5 2 4 5 2 5 5 2 
6 5 2 7 5 2 8 5 2 
9 5 2 10 5 2 11 5 2 
12 5 2 13 5 2 14 5 2 
15 5 2 16 5 2 17 5 2 
18 5 2 19 5 2 20 5 2 
21 5 2 22 5 2 23 5 2 
24 5 2 25 5 2 26 5 2 
0 0 3 1 0 3 2 0 3 
3 0 3 4 0 3 5 0 3 
6 0 3 7 0 3 8 0 3 
9 0 3 10 0 3 11 0 3 
12 0 3 13 0 3 14 0 3 
15 0 3 16 0 3 17 0 3 
18 0 3 19 0 3 20 0 3 
21 0 3 22 0 3 23 0 3 
24 0 3 25 0 3 26 0 3 
0 1 3 1 1 3 2 1 3 
3 1 3 4 1 3 5 1 3 
6 1 3 7 1 3 8 1 3 
9 1 3 10 1 3 11 1 3 
12 1 3 13 1 3 14 1 3 
15 1 3 16 1 3 17 1 3 
18 1 3 19 1 3 20 1 3 
21 1 3 22 1 3 23 1 3 
24 1 3 25 1 3 26 1 3 
0 2 3 1 2 3 2 2 3 
3 2 3 4 2 3 5 2 3 
6 2 3 7 2 3 8 2 3 
9 2 3 10 2 3 11 2 3 
12 2 3 13 2 3 14 2 3 
15 2 3 16 2 3 17 2 3 
18 2 3 19 2 3 20 2 3 
21 2 3 22 2 3 23 2 3 
24 2 3 25 2 3 26 2 3 
0 3 3 1 3 3 2 3 3 
3 3 3 4 3 3 5 3 3 
6 3 3 7 3 3 8 3 3 
9 3 3 10 3 3 11 3 3 
12 3 3 13 3 3 14 3 3 
15 3 3 16 3 3 17 3 3 
18 3 3 19 3 3 20 3 3 
21 3 3 22 3 3 23 3 3 
24 3 3 25 3 3 26 3 3 
0 4 3 1 4 3 2 4 3 
3 4 3 4 4 3 5 4 3 
6 4 3 7 4 3 8 4 3 
9 4 3 10 4 3 11 4 3 
12 4 3 13 4 3 14 4 3 
15 4 3 16 4 3 17 4 3 
18 4 3 19 4 3 20 4 3 
21 4 3 22 4 3 23 4 3 
24 4 3 25 4 3 26 4 3 
0 5 3 1 5 3 2 5 3 
3 5 3 4 5 3 5 5 3 
6 5 3 7 5 3 8 5 3 
9 5 3 10 5 3 11 5 3 
12 5 3 13 5 3 14 5 3 
15 5 3 16 5 3 17 5 3 
18 5 3 19 5 3 20 5 3 
21 5 3 22 5 3 23 5 3 
24 5 3 25 5 3 26 5 3 
0 0 4 1 0 4 2 0 4 
3 0 4 4 0 4 5 0 4 
6 0 4 7 0 4 8 0 4 
9 0 4 10 0 4 11 0 4 
12 0 4 13 0 4 14 0 4 
15 0 4 16 0 4 17 0 4 
18 0 4 19 0 4 20 0 4 
21 0 4 22 0 4 23 0 4 
24 0 4 25 0 4 26 0 4 
0 1 4 1 1 4 2 1 4 
3 1 4 4 1 4 5 1 4 
6 1 4 7 1 4 8 1 4 
9 1 4 10 1 4 11 1 4 
12 1 4 13 1 4 14 1 4 
15 1 4 16 1 4 17 1 4 
18 1 4 19 1 4 20 1 4 
21 1 4 22 1 4 23 1 4 
24 1 4 25 1 4 26 1 4 
0 2 4 1 2 4 2 2 4 
3 2 4 4 2 4 5 2 4 
6 2 4 7 2 4 8 2 4 
9 2 4 10 2 4 11 2 4 
12 2 4 13 2 4 14 2 4 
15 2 4 16 2 4 17 2 4 
18 2 4 19 2 4 20 2 4 
21 2 4 22 2 4 23 2 4 
24 2 4 25 2 4 26 2 4 
0 3 4 1 3 4 2 3 4 
3 3 4 4 3 4 5 3 4 
6 3 4 7 3 4 8 3 4 
9 3 4 10 3 4 11 3 4 
12 3 4 13 3 4 14 3 4 
15 3 4 16 3 4 17 3 4 
18 3 4 19 3 4 20 3 4 
21 3 4 22 3 4 23 3 4 
24 3 4 25 3 4 26 3 4 
0 4 4 1 4 4 2 4 4 
3 4 4 4 4 4 5 4 4 
6 4 4 7 4 4 8 4 4 
9 4 4 10 4 4 11 4 4 
12 4 4 13 4 4 14 4 4 
15 4 4 16 4 4 17 4 4 
18 4 4 19 4 4 20 4 4 
21 4 4 22 4 4 23 4 4 
24 4 4 25 4 4 26 4 4 
0 5 4 1 5 4 2 5 4 
3 5 4 4 5 4 5 5 4 
6 5 4 7 5 4 8 5 4 
9 5 4 10 5 4 11 5 4 
12 5 4 13 5 4 14 5 4 
15 5 4 16 5 4 17 5 4 
18 5 4 19 5 4 20 5 4 
21 5 4 22 5 4 23 5 4 
24 5 4 25 5 4 26 5 4 
11 0 5 12 0 5 13 0 5 
14 0 5 15 0 5 16 0 5 
11 1 5 12 1 5 13 1 5 
14 1 5 15 1 5 16 1 5 
11 2 5 12 2 5 13 2 5 
14 2 5 15 2 5 16 2 5 
11 3 5 12 3 5 13 3 5 
14 3 5 15 3 5 16 3 5 
11 4 5 12 4 5 13 4 5 
14 4 5 15 4 5 16 4 5 
11 5 5 12 5 5 13 5 5 
14 5 5 15 5 5 11 0 6 
12 0 6 13 0 6 14 0 6 
15 0 6 16 0 6 11 1 6 
12 1 6 13 1 6 14 1 6 
15 1 6 16 1 6 11 2 6 
12 2 6 13 2 6 14 2 6 
15 2 6 16 2 6 11 3 6 
12 3 6 13 3 6 14 3 6 
15 3 6 16 3 6 11 4 6 
12 4 6 13 4 6 14 4 6 
15 4 6 16 4 6 11 5 6 
12 5 6 13 5 6 14 5 6 
15 5 6 16 5 6 11 0 7 
12 0 7 13 0 7 14 0 7 
15 0 7 16 0 7 11 1 7 
12 1 7 13 1 7 14 1 7 
15 1 7 16 1 7 11 2 7 
12 2 7 13 2 7 14 2 7 
15 2 7 16 2 7 11 3 7 
12 3 7 13 3 7 14 3 7 
15 3 7 16 3 7 11 4 7 
12 4 7 13 4 7 14 4 7 
15 4 7 16 4 7 11 5 7 
12 5 7 13 5 7 14 5 7 
15 5 7 16 5 7 0 0 8 
1 0 8 2 0 8 3 0 8 
4 0 8 5 0 8 6 0 8 
7 0 8 8 0 8 9 0 8 
10 0 8 11 0 8 12 0 8 
13 0 8 14 0 8 15 0 8 
16 0 8 17 0 8 18 0 8 
19 0 8 20 0 8 21 0 8 
22 0 8 23 0 8 24 0 8 
25 0 8 26 0 8 0 1 8 
1 1 8 2 1 8 3 1 8 
4 1 8 5 1 8 6 1 8 
7 1 8 8 1 8 9 1 8 
10 1 8 11 1 8 12 1 8 
13 1 8 14 1 8 15 1 8 
16 1 8 17 1 8 18 1 8 
19 1 8 20 1 8 21 1 8 
22 1 8 23 1 8 24 1 8 
25 1 8 26 1 8 0 2 8 
1 2 8 2 2 8 3 2 8 
4 2 8 5 2 8 6 2 8 
7 2 8 8 2 8 9 2 8 
10 2 8 11 2 8 12 2 8 
13 2 8 14 2 8 15 2 8 
16 2 8 17 2 8 18 2 8 
19 2 8 20 2 8 21 2 8 
22 2 8 23 2 8 24 2 8 
25 2 8 26 2 8 0 3 8 
1 3 8 2 3 8 3 3 8 
4 3 8 5 3 8 6 3 8 
7 3 8 8 3 8 9 3 8 
10 3 8 11 3 8 12 3 8 
13 3 8 14 3 8 15 3 8 
16 3 8 17 3 8 18 3 8 
19 3 8 20 3 8 21 3 8 
22 3 8 23 3 8 24 3 8 
25 3 8 26 3 8 0 4 8 
1 4 8 2 4 8 3 4 8 
4 4 8 5 4 8 6 4 8 
7 4 8 8 4 8 9 4 8 
10 4 8 11 4 8 12 4 8 
13 4 8 14 4 8 15 4 8 
16 4 8 17 4 8 18 4 8 
19 4 8 20 4 8 21 4 8 
22 4 8 23 4 8 24 4 8 
25 4 8 26 4 8 0 5 8 
1 5 8 2 5 8 3 5 8 
4 5 8 5 5 8 6 5 8 
7 5 8 8 5 8 9 5 8 
10 5 8 11 5 8 12 5 8 
13 5 8 14 5 8 15 5 8 
16 5 8 20 5 8 21 5 8 
22 5 8 0 0 9 1 0 9 
2 0 9 3 0 9 4 0 9 
5 0 9 6 0 9 7 0 9 
8 0 9 9 0 9 10 0 9 
11 0 9 12 0 9 13 0 9 
14 0 9 15 0 9 16 0 9 
17 0 9 18 0 9 19 0 9 
20 0 9 21 0 9 22 0 9 
23 0 9 24 0 9 25 0 9 
26 0 9 0 1 9 1 1 9 
2 1 9 3 1 9 4 1 9 
5 1 9 6 1 9 7 1 9 
8 1 9 9 1 9 10 1 9 
11 1 9 12 1 9 13 1 9 
14 1 9 15 1 9 16 1 9 
17 1 9 18 1 9 19 1 9 
20 1 9 21 1 9 22 1 9 
23 1 9 24 1 9 25 1 9 
26 1 9 0 2 9 1 2 9 
2 2 9 3 2 9 4 2 9 
5 2 9 6 2 9 7 2 9 
8 2 9 9 2 9 10 2 9 
11 2 9 12 2 9 13 2 9 
14 2 9 15 2 9 16 2 9 
17 2 9 18 2 9 19 2 9 
20 2 9 21 2 9 22 2 9 
23 2 9 24 2 9 25 2 9 
26 2 9 0 3 9 1 3 9 
2 3 9 3 3 9 4 3 9 
5 3 9 6 3 9 7 3 9 
8 3 9 9 3 9 10 3 9 
11 3 9 12 3 9 13 3 9 
14 3 9 15 3 9 16 3 9 
17 3 9 18 3 9 19 3 9 
20 3 9 21 3 9 22 3 9 
23 3 9 24 3 9 25 3 9 
26 3 9 0 4 9 1 4 9 
2 4 9 3 4 9 4 4 9 
5 4 9 6 4 9 7 4 9 
8 4 9 9 4 9 10 4 9 
11 4 9 12 4 9 13 4 9 
14 4 9 15 4 9 16 4 9 
17 4 9 18 4 9 19 4 9 
20 4 9 21 4 9 22 4 9 
23 4 9 24 4 9 25 4 9 
26 4 9 0 5 9 1 5 9 
2 5 9 3 5 9 4 5 9 
5 5 9 6 5 9 7 5 9 
8 5 9 9 5 9 10 5 9 
11 5 9 12 5 9 13 5 9 
14 5 9 15 5 9 16 5 9 
17 5 9 18 5 9 19 5 9 
20 5 9 21 5 9 22 5 9 
23 5 9 24 5 9 25 5 9 
26 5 9 0 0 10 1 0 10 
2 0 10 3 0 10 4 0 10 
5 0 10 6 0 10 7 0 10 
8 0 10 9 0 10 10 0 10 
11 0 10 12 0 10 13 0 10 
14 0 10 15 0 10 16 0 10 
17 0 10 18 0 10 19 0 10 
20 0 10 21 0 10 22 0 10 
23 0 10 24 0 10 25 0 10 
26 0 10 0 1 10 1 1 10 
2 1 10 3 1 10 4 1 10 
5 1 10 6 1 10 7 1 10 
8 1 10 9 1 10 10 1 10 
11 1 10 12 1 10 13 1 10 
14 1 10 15 1 10 16 1 10 
17 1 10 18 1 10 19 1 10 
20 1 10 21 1 10 22 1 10 
23 1 10 24 1 10 25 1 10 
26 1 10 0 2 10 1 2 10 
2 2 10 3 2 10 4 2 10 
5 2 10 6 2 10 7 2 10 
8 2 10 9 2 10 10 2 10 
11 2 10 12 2 10 13 2 10 
14 2 10 15 2 10 16 2 10 
17 2 10 18 2 10 19 2 10 
20 2 10 21 2 10 22 2 10 
23 2 10 24 2 10 25 2 10 
26 2 10 0 3 10 1 3 10 
2 3 10 3 3 10 4 3 10 
5 3 10 6 3 10 7 3 10 
8 3 10 9 3 10 10 3 10 
11 3 10 12 3 10 13 3 10 
14 3 10 15 3 10 16 3 10 
17 3 10 18 3 10 19 3 10 
20 3 10 21 3 10 22 3 10 
23 3 10 24 3 10 25 3 10 
26 3 10 0 4 10 1 4 10 
2 4 10 3 4 10 4 4 10 
5 4 10 6 4 10 7 4 10 
8 4 10 9 4 10 10 4 10 
11 4 10 12 4 10 13 4 10 
14 4 10 15 4 10 16 4 10 
17 4 10 18 4 10 19 4 10 
20 4 10 21 4 10 22 4 10 
23 4 10 24 4 10 25 4 10 
26 4 10 0 5 10 1 5 10 
2 5 10 3 5 10 4 5 10 
5 5 10 6 5 10 7 5 10 
8 5 10 9 5 10 10 5 10 
11 5 10 12 5 10 13 5 10 
14 5 10 15 5 10 16 5 10 
17 5 10 18 5 10 19 5 10 
20 5 10 21 5 10 22 5 10 
23 5 10 24 5 10 25 5 10 
[...]
CELL_DATA 992
FIELD FieldData 1
vtkOriginalCellIds 1 992 vtkIdType
0 1 2 3 4 5 6 7 8 
9 10 11 12 13 14 15 16 17 
18 19 20 21 22 23 24 25 26 
27 28 29 30 31 32 33 34 35 
36 37 38 39 40 41 42 43 44 
45 46 47 48 49 50 51 52 53 
54 55 56 57 58 59 60 61 62 
63 64 65 66 67 68 69 70 71 
72 73 74 75 76 77 78 79 80 
81 82 83 84 85 86 87 88 89 
90 91 92 93 94 95 96 97 98 
99 100 101 102 103 104 105 106 107 
108 109 110 111 112 113 114 115 116 
117 118 119 120 121 122 123 124 125 
126 127 128 129 130 131 132 133 134 
135 136 137 138 139 140 141 142 143 
144 145 146 147 148 149 150 151 152 
153 154 155 156 157 158 159 160 161 
162 163 164 165 166 167 168 169 170 
171 172 173 174 175 176 177 178 179 
180 181 182 183 184 185 186 187 188 
189 190 191 192 193 194 195 196 197 
198 199 200 201 202 203 204 205 206 
207 208 209 210 211 212 213 214 215 
216 217 218 219 220 221 222 223 224 
225 226 227 228 229 230 231 232 233 
234 235 236 237 238 239 240 241 242 
243 244 245 246 247 248 249 250 251 
252 253 254 255 256 257 258 259 260 
261 262 263 264 265 266 267 268 269 
270 271 272 273 274 275 276 277 278 
279 280 281 282 283 284 285 286 287 
288 289 290 291 292 293 294 295 296 
297 298 299 300 301 302 303 304 305 
306 307 308 309 310 311 312 313 314 
315 316 317 318 319 320 321 322 323 
324 325 326 327 328 329 330 331 332 
333 334 335 336 337 338 339 340 341 
342 343 344 345 346 347 348 349 350 
351 352 353 354 355 356 357 358 359 
360 361 362 363 364 365 366 367 368 
369 370 371 372 373 374 375 376 377 
378 379 380 381 382 383 384 385 386 
387 388 389 390 391 392 393 394 395 
396 397 398 399 400 401 402 403 404 
405 406 407 408 409 410 411 412 413 
414 415 416 417 418 419 420 421 422 
423 424 425 426 427 428 429 430 431 
432 434 435 436 437 438 439 440 441 
442 443 444 445 446 447 448 449 450 
451 452 453 454 455 456 457 458 459 
460 461 462 463 464 465 466 467 468 
469 470 471 472 473 474 475 476 477 
478 479 480 481 482 483 484 485 486 
487 488 489 490 491 492 493 494 495 
496 497 498 499 500 501 502 503 504 
505 506 507 508 509 510 511 512 513 
514 515 516 517 518 519 531 532 533 
534 535 557 558 559 560 561 584 585 
586 587 609 610 611 612 613 635 636 
637 638 661 662 663 664 665 687 688 
689 690 691 714 715 716 717 739 740 
741 742 743 765 766 767 768 791 792 
793 794 795 817 818 819 820 821 843 
844 845 846 869 870 871 872 873 895 
896 897 898 899 921 922 923 924 925 
947 948 949 950 951 973 974 975 976 
977 999 1000 1001 1002 1003 1025 1026 1027 
1028 1029 1040 1041 1042 1043 1044 1045 1046 
1047 1048 1049 1050 1051 1052 1053 1054 1055 
1056 1057 1058 1059 1060 1061 1062 1063 1064 
1065 1066 1067 1068 1069 1070 1071 1072 1074 
1075 1076 1077 1078 1079 1080 1081 1082 1083 
1084 1085 1086 1087 1088 1089 1090 1091 1092 
1093 1094 1095 1096 1097 1098 1099 1100 1101 
1102 1103 1104 1105 1106 1107 1108 1109 1110 
1111 1112 1113 1114 1115 1116 1117 1118 1119 
1120 1121 1122 1123 1124 1125 1126 1127 1128 
1129 1130 1131 1132 1133 1134 1135 1136 1137 
1138 1139 1140 1142 1143 1144 1145 1147 1148 
1149 1150 1151 1152 1153 1154 1155 1156 1157 
1158 1164 1165 1170 1171 1172 1173 1174 1175 
1176 1177 1178 1179 1180 1181 1182 1183 1184 
1185 1186 1187 1188 1189 1190 1191 1192 1193 
1194 1195 1196 1197 1198 1199 1200 1201 1202 
1203 1204 1205 1206 1207 1208 1209 1210 1211 
1212 1213 1214 1215 1216 1217 1218 1219 1220 
1221 1222 1223 1224 1225 1226 1227 1228 1229 
1230 1231 1232 1233 1234 1235 1236 1237 1238 
1239 1240 1241 1242 1243 1244 1245 1246 1247 
1248 1249 1250 1251 1252 1253 1254 1255 1256 
1257 1258 1259 1260 1261 1262 1263 1264 1265 
1266 1267 1268 1269 1270 1271 1272 1273 1274 
1275 1276 1277 1278 1279 1280 1281 1282 1283 
1284 1285 1286 1287 1288 1289 1290 1291 1292 
1293 1294 1295 1296 1297 1298 1299 1300 1301 
1302 1303 1304 1305 1306 1307 1308 1309 1310 
1311 1312 1313 1314 1315 1316 1317 1318 1319 
1320 1321 1322 1323 1324 1325 1326 1327 1328 
1329 1330 1331 1332 1333 1334 1335 1336 1337 
1338 1339 1340 1341 1342 1343 1344 1345 1346 
1347 1348 1349 1350 1351 1352 1353 1354 1355 
1356 1357 1358 1359 1360 1361 1362 1363 1364 
1365 1366 1367 1368 1369 1370 1371 1372 1373 
1374 1375 1376 1377 1378 1379 1380 1381 1382 
1383 1384 1385 1386 1387 1388 1389 1390 1391 
1392 1393 1394 1395 1396 1397 1398 1399 1400 
1401 1402 1403 1404 1405 1406 1407 1408 1409 
1410 1411 1412 1413 1414 1415 1416 1417 1418 
1419 1420 1421 1422 1423 1424 1425 1426 1427 
1428 1429 
POINT_DATA 1558
FIELD FieldData 1
vtkOriginalPointIds 1 1558 vtkIdType
0 1 2 3 4 5 6 7 8 
9 10 11 12 13 14 15 16 17 
18 19 20 21 22 23 24 25 26 
27 28 29 30 31 32 33 34 35 
36 37 38 39 40 41 42 43 44 
45 46 47 48 49 50 51 52 53 
54 55 56 57 58 59 60 61 62 
63 64 65 66 67 68 69 70 71 
72 73 74 75 76 77 78 79 80 
81 82 83 84 85 86 87 88 89 
90 91 92 93 94 95 96 97 98 
99 100 101 102 103 104 105 106 107 
108 109 110 111 112 113 114 115 116 
117 118 119 120 121 122 123 124 125 
126 127 128 129 130 131 132 133 134 
135 136 137 138 139 140 141 142 143 
144 145 146 147 148 149 150 151 152 
153 154 155 156 157 158 159 160 161 
162 163 164 165 166 167 168 169 170 
171 172 173 174 175 176 177 178 179 
180 181 182 183 184 185 186 187 188 
189 190 191 192 193 194 195 196 197 
198 199 200 201 202 203 204 205 206 
207 208 209 210 211 212 213 214 215 
216 217 218 219 220 221 222 223 224 
225 226 227 228 229 230 231 232 233 
234 235 236 237 238 239 240 241 242 
243 244 245 246 247 248 249 250 251 
252 253 254 255 256 257 258 259 260 
261 262 263 264 265 266 267 268 269 
270 271 272 273 274 275 276 277 278 
279 280 281 282 283 284 285 286 287 
288 289 290 291 292 293 294 295 296 
297 298 299 300 301 302 303 304 305 
306 307 308 309 310 311 312 313 314 
315 316 317 318 319 320 321 322 323 
324 325 326 327 328 329 330 331 332 
333 334 335 336 337 338 339 340 341 
342 343 344 345 346 347 348 349 350 
351 352 353 354 355 356 357 358 359 
360 361 362 363 364 365 366 367 368 
369 370 371 372 373 374 375 376 377 
378 379 380 381 382 383 384 385 386 
387 388 389 390 391 392 393 394 395 
396 397 398 399 400 401 402 403 404 
405 406 407 408 409 410 411 412 413 
414 415 416 417 418 419 420 421 422 
423 424 425 426 427 428 429 430 431 
432 433 434 435 436 437 438 439 440 
441 442 443 444 445 446 447 448 449 
450 451 452 453 454 455 456 457 458 
459 460 461 462 463 464 465 466 467 
468 469 470 471 472 473 474 475 476 
477 478 479 480 481 482 483 484 485 
486 487 488 489 490 491 492 493 494 
495 496 497 498 499 500 501 502 503 
504 505 506 507 508 509 510 511 512 
513 514 515 516 517 518 519 520 521 
522 523 524 525 526 527 528 529 530 
531 532 533 534 535 536 537 538 539 
540 541 542 543 544 545 546 547 548 
549 550 551 552 553 554 555 556 557 
558 559 560 561 562 563 564 565 566 
567 568 569 570 571 572 573 574 575 
576 577 578 579 580 581 582 583 584 
585 586 587 588 589 590 591 592 593 
594 595 596 597 598 599 600 601 602 
603 604 605 606 607 608 609 610 611 
612 613 614 615 616 617 618 619 620 
621 622 623 624 625 626 627 628 629 
630 631 632 633 634 635 636 637 638 
639 640 641 642 643 644 645 646 647 
648 649 650 651 652 653 654 655 656 
657 658 659 660 661 662 663 664 665 
666 667 668 669 670 671 672 673 674 
675 676 677 678 679 680 681 682 683 
684 685 686 687 688 689 690 691 692 
693 694 695 696 697 698 699 700 701 
702 703 704 705 706 707 708 709 710 
711 712 713 714 715 716 717 718 719 
720 721 722 723 724 725 726 727 728 
729 730 731 732 733 734 735 736 737 
738 739 740 741 742 743 744 745 746 
747 748 749 750 751 752 753 754 755 
756 757 758 759 760 761 762 763 764 
765 766 767 768 769 770 771 772 773 
774 775 776 777 778 779 780 781 782 
783 784 785 786 787 788 789 790 791 
792 793 794 795 796 797 798 799 800 
801 802 803 804 805 806 807 808 809 
821 822 823 824 825 826 848 849 850 
851 852 853 875 876 877 878 879 880 
902 903 904 905 906 907 929 930 931 
932 933 934 956 957 958 959 960 983 
984 985 986 987 988 1010 1011 1012 1013 
1014 1015 1037 1038 1039 1040 1041 1042 1064 
1065 1066 1067 1068 1069 1091 1092 1093 1094 
1095 1096 1118 1119 1120 1121 1122 1123 1145 
1146 1147 1148 1149 1150 1172 1173 1174 1175 
1176 1177 1199 1200 1201 1202 1203 1204 1226 
1227 1228 1229 1230 1231 1253 1254 1255 1256 
1257 1258 1280 1281 1282 1283 1284 1285 1296 
1297 1298 1299 1300 1301 1302 1303 1304 1305 
1306 1307 1308 1309 1310 1311 1312 1313 1314 
1315 1316 1317 1318 1319 1320 1321 1322 1323 
1324 1325 1326 1327 1328 1329 1330 1331 1332 
1333 1334 1335 1336 1337 1338 1339 1340 1341 
1342 1343 1344 1345 1346 1347 1348 1349 1350 
1351 1352 1353 1354 1355 1356 1357 1358 1359 
1360 1361 1362 1363 1364 1365 1366 1367 1368 
1369 1370 1371 1372 1373 1374 1375 1376 1377 
1378 1379 1380 1381 1382 1383 1384 1385 1386 
1387 1388 1389 1390 1391 1392 1393 1394 1395 
1396 1397 1398 1399 1400 1401 1402 1403 1404 
1405 1406 1407 1408 1409 1410 1411 1412 1413 
1414 1415 1416 1417 1418 1419 1420 1421 1422 
1423 1424 1425 1426 1427 1428 1429 1430 1431 
1432 1433 1434 1435 1436 1437 1438 1439 1440 
1441 1442 1443 1444 1445 1446 1447 1451 1452 
1453 1458 1459 1460 1461 1462 1463 1464 1465 
1466 1467 1468 1469 1470 1471 1472 1473 1474 
1475 1476 1477 1478 1479 1480 1481 1482 1483 
1484 1485 1486 1487 1488 1489 1490 1491 1492 
1493 1494 1495 1496 1497 1498 1499 1500 1501 
1502 1503 1504 1505 1506 1507 1508 1509 1510 
1511 1512 1513 1514 1515 1516 1517 1518 1519 
1520 1521 1522 1523 1524 1525 1526 1527 1528 
1529 1530 1531 1532 1533 1534 1535 1536 1537 
1538 1539 1540 1541 1542 1543 1544 1545 1546 
1547 1548 1549 1550 1551 1552 1553 1554 1555 
1556 1557 1558 1559 1560 1561 1562 1563 1564 
1565 1566 1567 1568 1569 1570 1571 1572 1573 
1574 1575 1576 1577 1578 1579 1580 1581 1582 
1583 1584 1585 1586 1587 1588 1589 1590 1591 
1592 1593 1594 1595 1596 1597 1598 1599 1600 
1601 1602 1603 1604 1605 1606 1607 1608 1609 
1610 1611 1612 1613 1614 1615 1616 1617 1618 
1619 1620 1621 1622 1623 1624 1625 1626 1627 
1628 1629 1630 1631 1632 1633 1634 1635 1636 
1637 1638 1639 1640 1641 1642 1643 1644 1645 
1646 1647 1648 1649 1650 1651 1652 1653 1654 
1655 1656 1657 1658 1659 1660 1661 1662 1663 
1664 1665 1666 1667 1668 1669 1670 1671 1672 
1673 1674 1675 1676 1677 1678 1679 1680 1681 
1682 1683 1684 1685 1686 1687 1688 1689 1690 
1691 1692 1693 1694 1695 1696 1697 1698 1699 
1700 1701 1702 1703 1704 1705 1706 1707 1708 
1709 1710 1711 1712 1713 1714 1715 1716 1717 
1718 1719 1720 1721 1722 1723 1724 1725 1726 
1727 1728 1729 1730 1731 1732 1733 1734 1735 
1736 1737 1738 1739 1740 1741 1742 1743 1744 
1745 1746 1747 1748 1749 1750 1751 1752 1753 
1754 1755 1756 1757 1758 1759 1760 1761 1762 
1763 1764 1765 1766 1767 1768 1769 1770 1771 
1772 1773 1774 1775 1776 1777 1778 1779 1780 
1781 1782 1783 1784 1785 1786 1787 1788 1789 
1790 1791 1792 1793 1794 1795 1796 1797 1798 
1799 1800 1801 1802 1803 1804 1805 1806 1807 
1808 1809 1810 1811 1812 1813 1814 1815 1816 
1817 1818 1819 1820 1821 1822 1823 1824 1825 
1826 1827 1828 1829 1830 1831 1832 1833 1834 
1835 1836 1837 1838 1839 1840 1841 1842 1843 
1844 1845 1846 1847 1848 1849 1850 1851 1852 
1853 1854 1855 1856 1857 1858 1859 1860 1861 
1862 1863 1864 1865 1866 1867 1868 1869 1870 
1871 1872 1873 1874 1875 1876 1877 1878 1879 
1880 1881 1882 1883 1884 1885 1886 1887 1888 
1889 1890 1891 1892 1893 1894 1895 1896 1897 
1898 1899 1900 1901 1902 1903 1904 1905 1906 
1907 1908 1909 1910 1911 1912 1913 1914 1915 
1916 1917 1918 1919 1920 1921 1922 1923 1924 
1925 1926 1927 1928 1929 1930 1931 1932 1933 
1934 1935 1936 1937 1938 1939 1940 1941 1942 
1943 
