# vtk DataFile Version 5.1
vtk output
ASCII
DATASET UNSTRUCTURED_GRID
POINTS 4180 double
15 0 0 16 0 0 17 0 0 
18 0 0 19 0 0 20 0 0 
21 0 0 22 0 0 23 0 0 
24 0 0 15 1 0 16 1 0 
17 1 0 18 1 0 19 1 0 
20 1 0 21 1 0 22 1 0 
23 1 0 24 1 0 15 2 0 
16 2 0 17 2 0 18 2 0 
19 2 0 20 2 0 21 2 0 
22 2 0 23 2 0 24 2 0 
15 3 0 16 3 0 17 3 0 
18 3 0 19 3 0 20 3 0 
21 3 0 22 3 0 23 3 0 
24 3 0 15 4 0 16 4 0 
17 4 0 18 4 0 19 4 0 
20 4 0 21 4 0 22 4 0 
23 4 0 24 4 0 15 5 0 
16 5 0 17 5 0 18 5 0 
19 5 0 20 5 0 21 5 0 
22 5 0 23 5 0 24 5 0 
15 6 0 16 6 0 17 6 0 
18 6 0 19 6 0 20 6 0 
21 6 0 22 6 0 23 6 0 
24 6 0 15 7 0 16 7 0 
17 7 0 18 7 0 19 7 0 
20 7 0 21 7 0 22 7 0 
23 7 0 24 7 0 15 8 0 
16 8 0 17 8 0 18 8 0 
19 8 0 20 8 0 21 8 0 
22 8 0 23 8 0 24 8 0 
15 9 0 16 9 0 17 9 0 
18 9 0 19 9 0 20 9 0 
21 9 0 22 9 0 23 9 0 
24 9 0 15 10 0 16 10 0 
17 10 0 18 10 0 19 10 0 
20 10 0 21 10 0 22 10 0 
23 10 0 24 10 0 15 0 1 
16 0 1 17 0 1 18 0 1 
19 0 1 20 0 1 21 0 1 
22 0 1 23 0 1 24 0 1 
15 1 1 16 1 1 17 1 1 
18 1 1 19 1 1 20 1 1 
21 1 1 22 1 1 23 1 1 
24 1 1 15 2 1 16 2 1 
17 2 1 18 2 1 19 2 1 
20 2 1 21 2 1 22 2 1 
23 2 1 24 2 1 15 3 1 
16 3 1 17 3 1 18 3 1 
19 3 1 20 3 1 21 3 1 
22 3 1 23 3 1 24 3 1 
15 4 1 16 4 1 17 4 1 
18 4 1 19 4 1 20 4 1 
21 4 1 22 4 1 23 4 1 
24 4 1 15 5 1 16 5 1 
17 5 1 18 5 1 19 5 1 
20 5 1 21 5 1 22 5 1 
23 5 1 24 5 1 15 6 1 
16 6 1 17 6 1 18 6 1 
19 6 1 20 6 1 21 6 1 
22 6 1 23 6 1 24 6 1 
15 7 1 16 7 1 17 7 1 
18 7 1 19 7 1 20 7 1 
21 7 1 22 7 1 23 7 1 
24 7 1 15 8 1 16 8 1 
17 8 1 18 8 1 19 8 1 
20 8 1 21 8 1 22 8 1 
23 8 1 24 8 1 15 9 1 
16 9 1 17 9 1 18 9 1 
19 9 1 20 9 1 21 9 1 
22 9 1 23 9 1 24 9 1 
15 10 1 16 10 1 17 10 1 
18 10 1 19 10 1 20 10 1 
21 10 1 22 10 1 23 10 1 
24 10 1 15 0 2 16 0 2 
17 0 2 18 0 2 19 0 2 
20 0 2 21 0 2 22 0 2 
23 0 2 24 0 2 15 1 2 
16 1 2 17 1 2 18 1 2 
19 1 2 20 1 2 21 1 2 
22 1 2 23 1 2 24 1 2 
15 2 2 16 2 2 17 2 2 
18 2 2 19 2 2 20 2 2 
21 2 2 22 2 2 23 2 2 
24 2 2 15 3 2 16 3 2 
17 3 2 18 3 2 19 3 2 
20 3 2 21 3 2 22 3 2 
23 3 2 24 3 2 15 4 2 
16 4 2 17 4 2 18 4 2 
19 4 2 20 4 2 21 4 2 
22 4 2 23 4 2 24 4 2 
15 5 2 16 5 2 17 5 2 
18 5 2 19 5 2 20 5 2 
21 5 2 22 5 2 23 5 2 
24 5 2 15 6 2 16 6 2 
17 6 2 18 6 2 19 6 2 
20 6 2 21 6 2 22 6 2 
23 6 2 24 6 2 15 7 2 
16 7 2 17 7 2 18 7 2 
19 7 2 20 7 2 21 7 2 
22 7 2 23 7 2 24 7 2 
15 8 2 16 8 2 17 8 2 
18 8 2 19 8 2 20 8 2 
21 8 2 22 8 2 23 8 2 
24 8 2 15 9 2 16 9 2 
17 9 2 18 9 2 19 9 2 
20 9 2 21 9 2 22 9 2 
23 9 2 24 9 2 15 10 2 
16 10 2 17 10 2 18 10 2 
19 10 2 20 10 2 21 10 2 
22 10 2 23 10 2 24 10 2 
15 0 3 16 0 3 17 0 3 
18 0 3 19 0 3 20 0 3 
21 0 3 22 0 3 23 0 3 
24 0 3 15 1 3 16 1 3 
17 1 3 18 1 3 19 1 3 
20 1 3 21 1 3 22 1 3 
23 1 3 24 1 3 15 2 3 
16 2 3 17 2 3 18 2 3 
19 2 3 20 2 3 21 2 3 
22 2 3 23 2 3 24 2 3 
15 3 3 16 3 3 17 3 3 
18 3 3 19 3 3 20 3 3 
21 3 3 22 3 3 23 3 3 
24 3 3 15 4 3 16 4 3 
17 4 3 18 4 3 19 4 3 
20 4 3 21 4 3 22 4 3 
23 4 3 24 4 3 15 5 3 
16 5 3 17 5 3 18 5 3 
19 5 3 20 5 3 21 5 3 
22 5 3 23 5 3 24 5 3 
15 6 3 16 6 3 17 6 3 
18 6 3 19 6 3 20 6 3 
21 6 3 22 6 3 23 6 3 
24 6 3 15 7 3 16 7 3 
17 7 3 18 7 3 19 7 3 
20 7 3 21 7 3 22 7 3 
23 7 3 24 7 3 15 8 3 
16 8 3 17 8 3 18 8 3 
19 8 3 20 8 3 21 8 3 
22 8 3 23 8 3 24 8 3 
15 9 3 16 9 3 17 9 3 
18 9 3 19 9 3 20 9 3 
21 9 3 22 9 3 23 9 3 
24 9 3 15 10 3 16 10 3 
17 10 3 18 10 3 19 10 3 
20 10 3 21 10 3 22 10 3 
23 10 3 24 10 3 15 0 4 
16 0 4 17 0 4 18 0 4 
19 0 4 20 0 4 21 0 4 
22 0 4 23 0 4 24 0 4 
15 1 4 16 1 4 17 1 4 
18 1 4 19 1 4 20 1 4 
21 1 4 22 1 4 23 1 4 
24 1 4 15 2 4 16 2 4 
17 2 4 18 2 4 19 2 4 
20 2 4 21 2 4 22 2 4 
23 2 4 24 2 4 15 3 4 
16 3 4 17 3 4 18 3 4 
19 3 4 20 3 4 21 3 4 
22 3 4 23 3 4 24 3 4 
15 4 4 16 4 4 17 4 4 
18 4 4 19 4 4 20 4 4 
21 4 4 22 4 4 23 4 4 
24 4 4 15 5 4 16 5 4 
17 5 4 18 5 4 19 5 4 
20 5 4 21 5 4 22 5 4 
23 5 4 24 5 4 15 6 4 
16 6 4 17 6 4 18 6 4 
19 6 4 20 6 4 21 6 4 
22 6 4 23 6 4 24 6 4 
15 7 4 16 7 4 17 7 4 
18 7 4 19 7 4 20 7 4 
21 7 4 22 7 4 23 7 4 
24 7 4 15 8 4 16 8 4 
17 8 4 18 8 4 19 8 4 
20 8 4 21 8 4 22 8 4 
23 8 4 24 8 4 15 9 4 
16 9 4 17 9 4 18 9 4 
19 9 4 20 9 4 21 9 4 
22 9 4 23 9 4 24 9 4 
15 10 4 16 10 4 17 10 4 
18 10 4 19 10 4 20 10 4 
21 10 4 22 10 4 23 10 4 
24 10 4 15 0 5 16 0 5 
17 0 5 18 0 5 19 0 5 
20 0 5 21 0 5 22 0 5 
23 0 5 24 0 5 15 1 5 
16 1 5 17 1 5 18 1 5 
19 1 5 20 1 5 21 1 5 
22 1 5 23 1 5 24 1 5 
15 2 5 16 2 5 17 2 5 
18 2 5 19 2 5 20 2 5 
21 2 5 22 2 5 23 2 5 
24 2 5 15 3 5 16 3 5 
17 3 5 18 3 5 19 3 5 
20 3 5 21 3 5 22 3 5 
23 3 5 24 3 5 15 4 5 
16 4 5 17 4 5 18 4 5 
19 4 5 20 4 5 21 4 5 
22 4 5 23 4 5 24 4 5 
15 5 5 16 5 5 17 5 5 
18 5 5 19 5 5 20 5 5 
21 5 5 22 5 5 23 5 5 
24 5 5 15 6 5 16 6 5 
17 6 5 18 6 5 19 6 5 
20 6 5 21 6 5 22 6 5 
23 6 5 24 6 5 15 7 5 
16 7 5 17 7 5 18 7 5 
19 7 5 20 7 5 21 7 5 
22 7 5 23 7 5 24 7 5 
15 8 5 16 8 5 17 8 5 
18 8 5 19 8 5 20 8 5 
21 8 5 22 8 5 23 8 5 
24 8 5 15 9 5 16 9 5 
17 9 5 18 9 5 19 9 5 
20 9 5 21 9 5 22 9 5 
23 9 5 24 9 5 15 10 5 
16 10 5 17 10 5 18 10 5 
19 10 5 20 10 5 21 10 5 
22 10 5 23 10 5 24 10 5 
15 0 6 16 0 6 17 0 6 
18 0 6 19 0 6 20 0 6 
21 0 6 22 0 6 23 0 6 
24 0 6 15 1 6 16 1 6 
17 1 6 18 1 6 19 1 6 
20 1 6 21 1 6 22 1 6 
23 1 6 24 1 6 15 2 6 
16 2 6 17 2 6 18 2 6 
19 2 6 20 2 6 21 2 6 
22 2 6 23 2 6 24 2 6 
15 3 6 16 3 6 17 3 6 
18 3 6 19 3 6 20 3 6 
21 3 6 22 3 6 23 3 6 
24 3 6 15 4 6 16 4 6 
17 4 6 18 4 6 19 4 6 
20 4 6 21 4 6 22 4 6 
23 4 6 24 4 6 15 5 6 
16 5 6 17 5 6 18 5 6 
19 5 6 20 5 6 21 5 6 
22 5 6 23 5 6 24 5 6 
15 6 6 16 6 6 17 6 6 
18 6 6 19 6 6 20 6 6 
21 6 6 22 6 6 23 6 6 
24 6 6 15 7 6 16 7 6 
17 7 6 18 7 6 19 7 6 
20 7 6 21 7 6 22 7 6 
23 7 6 24 7 6 15 8 6 
16 8 6 17 8 6 18 8 6 
19 8 6 20 8 6 21 8 6 
22 8 6 23 8 6 24 8 6 
15 9 6 16 9 6 17 9 6 
18 9 6 19 9 6 20 9 6 
21 9 6 22 9 6 23 9 6 
24 9 6 15 10 6 16 10 6 
17 10 6 18 10 6 19 10 6 
20 10 6 21 10 6 22 10 6 
23 10 6 24 10 6 15 0 7 
16 0 7 17 0 7 18 0 7 
19 0 7 20 0 7 21 0 7 
22 0 7 23 0 7 24 0 7 
15 1 7 16 1 7 17 1 7 
18 1 7 19 1 7 20 1 7 
21 1 7 22 1 7 23 1 7 
24 1 7 15 2 7 16 2 7 
17 2 7 18 2 7 19 2 7 
20 2 7 21 2 7 22 2 7 
23 2 7 24 2 7 15 3 7 
16 3 7 17 3 7 18 3 7 
19 3 7 20 3 7 21 3 7 
22 3 7 23 3 7 24 3 7 
15 4 7 16 4 7 17 4 7 
18 4 7 19 4 7 20 4 7 
21 4 7 22 4 7 23 4 7 
24 4 7 15 5 7 16 5 7 
17 5 7 18 5 7 19 5 7 
20 5 7 21 5 7 22 5 7 
23 5 7 24 5 7 15 6 7 
16 6 7 17 6 7 18 6 7 
19 6 7 20 6 7 21 6 7 
22 6 7 23 6 7 24 6 7 
15 7 7 16 7 7 17 7 7 
18 7 7 19 7 7 20 7 7 
21 7 7 22 7 7 23 7 7 
24 7 7 15 8 7 16 8 7 
17 8 7 18 8 7 19 8 7 
20 8 7 21 8 7 22 8 7 
23 8 7 24 8 7 15 9 7 
16 9 7 17 9 7 18 9 7 
19 9 7 20 9 7 21 9 7 
22 9 7 23 9 7 24 9 7 
15 10 7 16 10 7 17 10 7 
18 10 7 19 10 7 20 10 7 
21 10 7 22 10 7 23 10 7 
24 10 7 15 0 8 16 0 8 
17 0 8 18 0 8 19 0 8 
20 0 8 21 0 8 22 0 8 
23 0 8 24 0 8 15 1 8 
16 1 8 17 1 8 18 1 8 
19 1 8 20 1 8 21 1 8 
22 1 8 23 1 8 24 1 8 
15 2 8 16 2 8 17 2 8 
18 2 8 19 2 8 20 2 8 
21 2 8 22 2 8 23 2 8 
24 2 8 15 3 8 16 3 8 
17 3 8 18 3 8 19 3 8 
20 3 8 21 3 8 22 3 8 
23 3 8 24 3 8 15 4 8 
16 4 8 17 4 8 18 4 8 
19 4 8 20 4 8 21 4 8 
22 4 8 23 4 8 24 4 8 
15 5 8 16 5 8 17 5 8 
18 5 8 19 5 8 20 5 8 
21 5 8 22 5 8 23 5 8 
24 5 8 15 6 8 16 6 8 
17 6 8 18 6 8 19 6 8 
20 6 8 21 6 8 22 6 8 
23 6 8 24 6 8 15 7 8 
16 7 8 17 7 8 18 7 8 
19 7 8 20 7 8 21 7 8 
22 7 8 23 7 8 24 7 8 
15 8 8 16 8 8 17 8 8 
18 8 8 19 8 8 20 8 8 
21 8 8 22 8 8 23 8 8 
24 8 8 15 9 8 16 9 8 
17 9 8 18 9 8 19 9 8 
20 9 8 21 9 8 22 9 8 
23 9 8 24 9 8 15 10 8 
16 10 8 17 10 8 18 10 8 
19 10 8 20 10 8 21 10 8 
22 10 8 23 10 8 24 10 8 
15 0 9 16 0 9 17 0 9 
18 0 9 19 0 9 20 0 9 
21 0 9 22 0 9 23 0 9 
24 0 9 15 1 9 16 1 9 
17 1 9 18 1 9 19 1 9 
20 1 9 21 1 9 22 1 9 
23 1 9 24 1 9 15 2 9 
16 2 9 17 2 9 18 2 9 
19 2 9 20 2 9 21 2 9 
22 2 9 23 2 9 24 2 9 
15 3 9 16 3 9 17 3 9 
18 3 9 19 3 9 20 3 9 
21 3 9 22 3 9 23 3 9 
24 3 9 15 4 9 16 4 9 
17 4 9 18 4 9 19 4 9 
20 4 9 21 4 9 22 4 9 
23 4 9 24 4 9 15 5 9 
16 5 9 17 5 9 18 5 9 
19 5 9 20 5 9 21 5 9 
22 5 9 23 5 9 24 5 9 
15 6 9 16 6 9 17 6 9 
18 6 9 19 6 9 20 6 9 
21 6 9 22 6 9 23 6 9 
24 6 9 15 7 9 16 7 9 
17 7 9 18 7 9 19 7 9 
20 7 9 21 7 9 22 7 9 
23 7 9 24 7 9 15 8 9 
16 8 9 17 8 9 18 8 9 
19 8 9 20 8 9 21 8 9 
22 8 9 23 8 9 24 8 9 
15 9 9 16 9 9 17 9 9 
18 9 9 19 9 9 20 9 9 
21 9 9 22 9 9 23 9 9 
24 9 9 15 10 9 16 10 9 
17 10 9 18 10 9 19 10 9 
20 10 9 21 10 9 22 10 9 
23 10 9 24 10 9 15 0 10 
16 0 10 17 0 10 18 0 10 
19 0 10 20 0 10 21 0 10 
22 0 10 23 0 10 24 0 10 
15 1 10 16 1 10 17 1 10 
18 1 10 19 1 10 20 1 10 
21 1 10 22 1 10 23 1 10 
24 1 10 15 2 10 16 2 10 
17 2 10 18 2 10 19 2 10 
20 2 10 21 2 10 22 2 10 
23 2 10 24 2 10 15 3 10 
16 3 10 17 3 10 18 3 10 
19 3 10 20 3 10 21 3 10 
22 3 10 23 3 10 24 3 10 
15 4 10 16 4 10 17 4 10 
18 4 10 19 4 10 20 4 10 
21 4 10 22 4 10 23 4 10 
24 4 10 15 5 10 16 5 10 
17 5 10 18 5 10 19 5 10 
20 5 10 21 5 10 22 5 10 
23 5 10 24 5 10 15 6 10 
16 6 10 17 6 10 18 6 10 
19 6 10 20 6 10 21 6 10 
22 6 10 23 6 10 24 6 10 
15 7 10 16 7 10 17 7 10 
18 7 10 19 7 10 20 7 10 
21 7 10 22 7 10 23 7 10 
24 7 10 15 8 10 16 8 10 
17 8 10 18 8 10 19 8 10 
20 8 10 21 8 10 22 8 10 
23 8 10 24 8 10 15 9 10 
16 9 10 17 9 10 18 9 10 
19 9 10 20 9 10 21 9 10 
22 9 10 23 9 10 24 9 10 
15 10 10 16 10 10 17 10 10 
18 10 10 19 10 10 20 10 10 
21 10 10 22 10 10 23 10 10 
24 10 10 15 0 11 16 0 11 
17 0 11 18 0 11 19 0 11 
20 0 11 21 0 11 22 0 11 
23 0 11 24 0 11 15 1 11 
16 1 11 17 1 11 18 1 11 
19 1 11 20 1 11 21 1 11 
22 1 11 23 1 11 24 1 11 
15 2 11 16 2 11 17 2 11 
18 2 11 19 2 11 20 2 11 
21 2 11 22 2 11 23 2 11 
24 2 11 15 3 11 16 3 11 
17 3 11 18 3 11 19 3 11 
20 3 11 21 3 11 22 3 11 
23 3 11 24 3 11 15 4 11 
16 4 11 17 4 11 18 4 11 
19 4 11 20 4 11 21 4 11 
22 4 11 23 4 11 24 4 11 
15 5 11 16 5 11 17 5 11 
18 5 11 19 5 11 20 5 11 
21 5 11 22 5 11 23 5 11 
24 5 11 15 6 11 16 6 11 
17 6 11 18 6 11 19 6 11 
20 6 11 21 6 11 22 6 11 
23 6 11 24 6 11 15 7 11 
16 7 11 17 7 11 18 7 11 
19 7 11 20 7 11 21 7 11 
22 7 11 23 7 11 24 7 11 
15 8 11 16 8 11 17 8 11 
18 8 11 19 8 11 20 8 11 
21 8 11 22 8 11 23 8 11 
24 8 11 15 9 11 16 9 11 
17 9 11 18 9 11 19 9 11 
20 9 11 21 9 11 22 9 11 
[...]
CELL_DATA 3210
FIELD FieldData 1
vtkOriginalCellIds 1 3210 vtkIdType
15 16 17 18 19 20 21 22 23 
54 55 56 57 58 59 60 61 62 
93 94 95 96 97 98 99 100 101 
132 133 134 135 136 137 138 139 140 
171 172 173 174 175 176 177 178 179 
210 211 212 213 214 215 216 217 218 
249 250 251 252 253 254 255 256 257 
288 289 290 291 292 293 294 295 296 
327 328 329 330 331 332 333 334 335 
366 367 368 369 370 371 372 373 374 
405 406 407 408 409 410 411 412 413 
444 445 446 447 448 449 450 451 452 
483 484 485 486 487 488 489 490 491 
522 523 524 525 526 527 528 529 530 
561 562 563 564 565 566 567 568 569 
600 601 602 603 604 605 606 607 608 
639 640 641 642 643 644 645 646 647 
678 679 680 681 682 683 684 685 686 
717 718 719 720 721 722 723 724 725 
756 757 758 759 760 761 762 763 764 
795 796 797 798 799 800 801 802 803 
834 835 836 837 838 839 840 841 842 
873 874 875 876 877 878 879 880 881 
912 913 914 915 916 917 918 919 920 
951 952 953 954 955 956 957 958 959 
990 991 992 993 994 995 996 997 998 
1029 1030 1031 1032 1033 1034 1035 1036 1037 
1068 1069 1070 1071 1072 1073 1074 1075 1076 
1107 1108 1109 1110 1111 1112 1113 1114 1115 
1146 1147 1148 1149 1150 1151 1152 1153 1154 
1185 1186 1187 1188 1189 1190 1191 1192 1193 
1224 1225 1226 1227 1228 1229 1230 1231 1232 
1263 1264 1265 1266 1267 1268 1269 1270 1271 
1302 1303 1304 1305 1306 1307 1308 1309 1310 
1341 1342 1343 1344 1345 1346 1347 1348 1349 
1380 1381 1382 1383 1384 1385 1386 1387 1388 
1419 1420 1421 1422 1423 1424 1425 1426 1427 
1458 1459 1460 1461 1462 1463 1464 1465 1466 
1497 1498 1499 1500 1501 1502 1503 1504 1505 
1536 1537 1538 1539 1540 1541 1542 1543 1544 
1575 1576 1577 1578 1579 1580 1581 1582 1583 
1614 1615 1616 1617 1618 1619 1620 1621 1622 
1653 1654 1655 1656 1657 1658 1659 1660 1661 
1692 1693 1694 1695 1696 1697 1698 1699 1700 
1731 1732 1733 1734 1735 1736 1737 1738 1739 
1770 1771 1772 1773 1774 1775 1776 1777 1778 
1809 1810 1811 1812 1813 1814 1815 1816 1817 
1848 1849 1850 1851 1852 1853 1854 1855 1856 
1887 1888 1889 1890 1891 1892 1893 1894 1895 
1926 1927 1928 1929 1930 1931 1932 1933 1934 
1965 1966 1967 1968 1969 1970 1971 1972 1973 
2004 2005 2006 2007 2008 2009 2010 2011 2012 
2043 2044 2045 2046 2047 2048 2049 2050 2051 
2082 2083 2084 2085 2086 2087 2088 2089 2090 
2121 2122 2123 2124 2125 2126 2127 2128 2129 
2160 2161 2162 2163 2164 2165 2166 2167 2168 
2199 2200 2201 2202 2203 2204 2205 2206 2207 
2238 2239 2240 2241 2242 2243 2244 2245 2246 
2277 2278 2279 2280 2281 2282 2283 2284 2285 
2316 2317 2318 2319 2320 2321 2322 2323 2324 
2355 2356 2357 2358 2359 2360 2361 2362 2363 
2394 2395 2396 2397 2398 2399 2400 2401 2402 
2433 2434 2435 2436 2437 2438 2439 2440 2441 
2472 2473 2474 2475 2476 2477 2478 2479 2480 
2511 2512 2513 2514 2515 2516 2517 2518 2519 
2550 2551 2552 2553 2554 2555 2556 2557 2558 
2589 2590 2591 2592 2593 2594 2595 2596 2597 
2628 2629 2630 2631 2632 2633 2634 2635 2636 
2667 2668 2669 2670 2671 2672 2673 2674 2675 
2706 2707 2708 2709 2710 2711 2712 2713 2714 
2745 2746 2747 2748 2749 2750 2751 2752 2753 
2784 2785 2786 2787 2788 2789 2790 2791 2792 
2823 2824 2825 2826 2827 2828 2829 2830 2831 
2862 2863 2864 2865 2866 2867 2868 2869 2870 
2901 2902 2903 2904 2905 2906 2907 2908 2909 
2940 2941 2942 2943 2944 2945 2946 2947 2948 
2979 2980 2981 2982 2983 2984 2985 2986 2987 
3018 3019 3020 3021 3022 3023 3024 3025 3026 
3057 3058 3059 3060 3061 3062 3063 3064 3065 
3096 3097 3098 3099 3100 3101 3102 3103 3104 
3135 3136 3137 3138 3139 3140 3141 3142 3143 
3174 3175 3176 3177 3178 3179 3180 3181 3182 
3213 3214 3215 3216 3217 3218 3219 3220 3221 
3252 3253 3254 3255 3256 3257 3258 3259 3260 
3291 3292 3293 3294 3295 3296 3297 3298 3299 
3330 3331 3332 3333 3334 3335 3336 3337 3338 
3369 3370 3371 3372 3373 3374 3375 3376 3377 
3408 3409 3410 3411 3412 3413 3414 3415 3416 
3447 3448 3449 3450 3451 3452 3453 3454 3455 
3486 3487 3488 3489 3490 3491 3492 3493 3494 
3525 3526 3527 3528 3529 3530 3531 3532 3533 
3564 3565 3566 3567 3568 3569 3570 3571 3572 
3603 3604 3605 3606 3607 3608 3609 3610 3611 
3642 3643 3644 3645 3646 3647 3648 3649 3650 
3681 3682 3683 3684 3685 3686 3687 3688 3689 
3720 3721 3722 3723 3724 3725 3726 3727 3728 
3759 3760 3761 3762 3763 3764 3765 3766 3767 
3798 3799 3800 3801 3802 3803 3804 3805 3806 
3837 3838 3839 3840 3841 3842 3843 3844 3845 
3876 3877 3878 3879 3880 3881 3882 3883 3884 
3915 3916 3917 3918 3919 3920 3921 3922 3923 
3954 3955 3956 3957 3958 3959 3960 3961 3962 
3993 3994 3995 3996 3997 3998 3999 4000 4001 
4032 4033 4034 4035 4036 4037 4038 4039 4040 
4071 4072 4073 4074 4075 4076 4077 4078 4079 
4110 4111 4112 4113 4114 4115 4116 4117 4118 
4149 4150 4151 4152 4153 4154 4155 4156 4157 
4188 4189 4190 4191 4192 4193 4194 4195 4196 
4227 4228 4229 4230 4231 4232 4233 4234 4235 
4266 4267 4268 4269 4270 4271 4272 4273 4274 
4305 4306 4307 4308 4309 4310 4311 4312 4313 
4344 4345 4346 4347 4348 4349 4350 4351 4352 
4383 4384 4385 4386 4387 4388 4389 4390 4391 
4422 4423 4424 4425 4426 4427 4428 4429 4430 
4461 4462 4463 4464 4465 4466 4467 4468 4469 
4500 4501 4502 4503 4504 4505 4506 4507 4508 
4539 4540 4541 4542 4543 4544 4545 4546 4547 
4578 4579 4580 4581 4582 4583 4584 4585 4586 
4617 4618 4619 4620 4621 4622 4623 4624 4625 
4656 4657 4658 4659 4660 4661 4662 4663 4664 
4695 4696 4697 4698 4699 4700 4701 4702 4703 
4734 4735 4736 4737 4738 4739 4740 4741 4742 
4773 4774 4775 4776 4777 4778 4779 4780 4781 
4812 4813 4814 4815 4816 4817 4818 4819 4820 
4851 4852 4853 4854 4855 4856 4857 4858 4859 
4890 4891 4892 4893 4894 4895 4896 4897 4898 
4929 4930 4931 4932 4933 4934 4935 4936 4937 
4968 4969 4970 4971 4972 4973 4974 4975 4976 
5007 5008 5009 5010 5011 5012 5013 5014 5015 
5046 5047 5048 5049 5050 5051 5052 5053 5054 
5085 5086 5087 5088 5089 5090 5091 5092 5093 
5124 5125 5126 5127 5128 5129 5130 5131 5132 
5163 5164 5165 5166 5167 5168 5169 5170 5171 
5202 5203 5204 5205 5206 5207 5208 5209 5210 
5241 5242 5243 5244 5245 5246 5247 5248 5249 
5280 5281 5282 5283 5284 5285 5286 5287 5288 
5319 5320 5321 5322 5323 5324 5325 5326 5327 
5358 5359 5360 5361 5362 5363 5364 5365 5366 
5397 5398 5399 5400 5401 5402 5403 5404 5405 
5436 5437 5438 5439 5440 5441 5442 5443 5444 
5460 5461 5462 5463 5464 5465 5466 5467 5468 
5469 5470 5471 5472 5473 5474 5475 5476 5477 
5478 5479 5480 5481 5482 5483 5484 5485 5486 
5487 5488 5489 5490 5491 5492 5493 5494 5495 
5496 5497 5498 5499 5500 5501 5502 5503 5504 
5505 5506 5507 5508 5509 5510 5511 5512 5513 
5514 5515 5516 5517 5518 5519 5520 5521 5522 
5523 5524 5525 5526 5527 5528 5529 5530 5531 
5532 5533 5534 5535 5536 5537 5538 5539 5540 
5541 5542 5543 5544 5545 5546 5547 5548 5549 
5550 5551 5552 5553 5554 5555 5556 5557 5558 
5559 5560 5561 5562 5563 5564 5565 5566 5567 
5568 5569 5570 5571 5572 5573 5574 5575 5576 
5577 5578 5579 5580 5581 5582 5583 5584 5585 
5586 5587 5588 5589 5590 5591 5592 5593 5594 
5595 5596 5597 5598 5599 5600 5601 5602 5603 
5604 5605 5606 5607 5608 5609 5610 5611 5612 
5613 5614 5615 5616 5617 5618 5619 5620 5621 
5622 5623 5624 5625 5626 5627 5628 5629 5630 
5631 5632 5633 5634 5635 5636 5637 5638 5639 
5640 5641 5642 5643 5644 5645 5646 5647 5648 
5649 5650 5651 5652 5653 5654 5655 5656 5657 
5658 5659 5660 5661 5662 5663 5664 5665 5666 
5667 5668 5669 5670 5671 5672 5673 5674 5675 
5676 5677 5678 5679 5680 5681 5682 5683 5684 
5685 5686 5687 5688 5689 5690 5691 5692 5693 
5694 5695 5696 5697 5698 5699 5700 5701 5702 
5703 5704 5705 5706 5707 5708 5709 5710 5711 
5712 5713 5714 5715 5716 5717 5718 5719 5720 
5721 5722 5723 5724 5725 5726 5727 5728 5729 
5730 5731 5732 5733 5734 5735 5736 5737 5738 
5739 5740 5741 5742 5743 5744 5745 5746 5747 
5748 5749 5750 5751 5752 5753 5754 5755 5756 
5757 5758 5759 5760 5761 5762 5763 5764 5765 
5766 5767 5768 5769 5770 5771 5772 5773 5774 
5775 5776 5777 5778 5779 5780 5781 5782 5783 
5784 5785 5786 5787 5788 5789 5790 5791 5792 
5793 5794 5795 5796 5797 5798 5799 5800 5801 
5802 5803 5804 5805 5806 5807 5808 5809 5810 
5811 5812 5813 5814 5815 5816 5817 5818 5819 
5820 5821 5822 5823 5824 5825 5826 5827 5828 
5829 5830 5831 5832 5833 5834 5835 5836 5837 
5838 5839 5840 5841 5842 5843 5844 5845 5846 
5847 5848 5849 5850 5851 5852 5853 5854 5855 
5856 5857 5858 5859 5860 5861 5862 5863 5864 
5865 5866 5867 5868 5869 5870 5871 5872 5873 
5874 5875 5876 5877 5878 5879 5880 5881 5882 
5883 5884 5885 5886 5887 5888 5889 5890 5891 
5892 5893 5894 5895 5896 5897 5898 5899 5900 
5901 5902 5903 5904 5905 5906 5907 5908 5909 
5910 5911 5912 5913 5914 5915 5916 5917 5918 
5919 5920 5921 5922 5923 5924 5925 5926 5927 
5928 5929 5930 5931 5932 5933 5934 5935 5936 
5937 5938 5939 5940 5941 5942 5943 5944 5945 
5946 5947 5948 5949 5950 5951 5952 5953 5954 
5955 5956 5957 5958 5959 5960 5961 5962 5963 
5964 5965 5966 5967 5968 5969 5970 5971 5972 
5973 5974 5975 5976 5977 5978 5979 5980 5981 
5982 5983 5984 5985 5986 5987 5988 5989 5990 
5991 5992 5993 5994 5995 5996 5997 5998 5999 
6000 6001 6002 6003 6004 6005 6006 6007 6008 
6009 6010 6011 6012 6013 6014 6015 6016 6017 
6018 6019 6020 6021 6022 6023 6024 6025 6026 
6027 6028 6029 6030 6031 6032 6033 6034 6035 
6036 6037 6038 6039 6040 6041 6042 6043 6044 
6045 6046 6047 6048 6049 6050 6051 6052 6053 
6054 6055 6056 6057 6058 6059 6060 6061 6062 
6063 6064 6065 6066 6067 6068 6069 6070 6071 
6072 6073 6074 6075 6076 6077 6078 6079 6080 
6081 6082 6083 6084 6085 6086 6087 6088 6089 
6090 6091 6092 6093 6094 6095 6096 6097 6098 
6099 6100 6101 6102 6103 6104 6105 6106 6107 
6108 6109 6110 6111 6112 6113 6114 6115 6116 
6117 6118 6119 6120 6121 6122 6123 6124 6125 
6126 6127 6128 6129 6130 6131 6132 6133 6134 
6135 6136 6137 6138 6139 6140 6141 6142 6143 
6144 6145 6146 6147 6148 6149 6150 6151 6152 
6153 6154 6155 6156 6157 6158 6159 6160 6161 
6162 6163 6164 6165 6166 6167 6168 6169 6170 
6171 6172 6173 6174 6175 6176 6177 6178 6179 
6180 6181 6182 6183 6184 6185 6186 6187 6188 
6189 6190 6191 6192 6193 6194 6195 6196 6197 
6198 6199 6200 6201 6202 6203 6204 6205 6206 
6207 6208 6209 6210 6211 6212 6213 6214 6215 
6216 6217 6218 6219 6220 6221 6222 6223 6224 
6225 6226 6227 6228 6229 6230 6231 6232 6233 
6234 6235 6236 6237 6238 6239 6240 6241 6242 
6243 6244 6245 6246 6247 6248 6249 6250 6251 
6252 6253 6254 6255 6256 6257 6258 6259 6260 
6261 6262 6263 6264 6265 6266 6267 6268 6269 
6270 6271 6272 6273 6274 6275 6276 6277 6278 
6279 6280 6281 6282 6283 6284 6285 6286 6287 
6288 6289 6290 6291 6292 6293 6294 6295 6296 
6297 6298 6299 6300 6301 6302 6303 6304 6305 
6306 6307 6308 6309 6310 6311 6312 6313 6314 
6315 6316 6317 6318 6319 6320 6321 6322 6323 
6324 6325 6326 6327 6328 6329 6330 6331 6332 
6333 6334 6335 6336 6337 6338 6339 6340 6341 
6342 6343 6344 6345 6346 6347 6348 6349 6350 
6351 6352 6353 6354 6355 6356 6357 6358 6359 
6360 6361 6362 6363 6364 6365 6366 6367 6368 
6369 6370 6371 6372 6373 6374 6375 6376 6377 
6378 6379 6380 6381 6382 6383 6384 6385 6386 
6387 6388 6389 6390 6391 6392 6393 6394 6395 
6396 6397 6398 6399 6400 6401 6402 6403 6404 
6405 6406 6407 6408 6409 6410 6411 6412 6413 
6414 6415 6416 6417 6418 6419 6420 6421 6422 
6423 6424 6425 6426 6427 6428 6429 6430 6431 
6432 6433 6434 6435 6436 6437 6438 6439 6440 
6441 6442 6443 6444 6445 6446 6447 6448 6449 
6450 6451 6452 6453 6454 6455 6456 6457 6458 
6459 6460 6461 6462 6463 6464 6465 6466 6467 
6468 6469 6470 6471 6472 6473 6474 6475 6476 
6477 6478 6479 6480 6481 6482 6483 6484 6485 
6486 6487 6488 6489 6490 6491 6492 6493 6494 
6495 6496 6497 6498 6499 6500 6501 6502 6503 
6504 6505 6506 6507 6508 6509 6510 6511 6512 
6513 6514 6515 6516 6517 6518 6519 6520 6521 
6522 6523 6524 6525 6526 6527 6528 6529 6530 
6531 6532 6533 6534 6535 6536 6537 6538 6539 
6540 6541 6542 6543 6544 6545 6546 6547 6548 
6549 6550 6551 6552 6553 6554 6555 6556 6557 
6558 6559 6560 6561 6562 6563 6564 6565 6566 
6567 6568 6569 6570 6571 6572 6573 6574 6575 
6576 6577 6578 6579 6580 6581 6582 6583 6584 
6585 6586 6587 6588 6589 6590 6591 6592 6593 
6594 6595 6596 6597 6598 6599 6600 6601 6602 
6603 6604 6605 6606 6607 6608 6609 6610 6611 
6612 6613 6614 6615 6616 6617 6618 6619 6620 
6621 6622 6623 6624 6625 6626 6627 6628 6629 
6630 6631 6632 6633 6634 6635 6636 6637 6638 
6639 6640 6641 6642 6643 6644 6645 6646 6647 
6648 6649 6650 6651 6652 6653 6654 6655 6656 
6657 6658 6659 6660 6661 6662 6663 6664 6665 
6666 6667 6668 6669 6670 6671 6672 6673 6674 
6675 6676 6677 6678 6679 6680 6681 6682 6683 
6684 6685 6686 6687 6688 6689 6690 6691 6692 
6693 6694 6695 6696 6697 6698 6699 6700 6701 
6702 6703 6704 6705 6706 6707 6708 6709 6710 
6711 6712 6713 6714 6715 6716 6717 6718 6719 
6720 6721 6722 6723 6724 6725 6726 6727 6728 
6729 6730 6731 6732 6733 6734 6735 6736 6737 
6738 6739 6740 6741 6742 6743 6744 6745 6746 
6747 6748 6749 6750 6751 6752 6753 6754 6755 
6756 6757 6758 6759 6760 6761 6762 6763 6764 
6765 6766 6767 6768 6769 6770 6771 6772 6773 
6774 6775 6776 6777 6778 6779 6780 6781 6782 
6783 6784 6785 6786 6787 6788 6789 6790 6791 
6792 6793 6794 6795 6796 6797 6798 6799 6800 
6801 6802 6803 6804 6805 6806 6807 6808 6809 
6810 6811 6812 6813 6814 6815 6816 6817 6818 
6819 6820 6821 6822 6823 6824 6825 6826 6827 
6828 6829 6830 6831 6832 6833 6834 6835 6836 
6837 6838 6839 6840 6841 6842 6843 6844 6845 
6846 6847 6848 6849 6850 6851 6852 6853 6854 
6855 6856 6857 6858 6859 6860 6861 6862 6863 
6864 6865 6866 6867 6868 6869 6870 6871 6872 
6873 6874 6875 6876 6877 6878 6879 6880 6881 
6882 6883 6884 6885 6886 6887 6888 6889 6890 
6891 6892 6893 6894 6895 6896 6897 6898 6899 
6900 6901 6902 6903 6904 6905 6906 6907 6908 
6909 6910 6911 6912 6913 6914 6915 6916 6917 
6918 6919 6920 6921 6922 6923 6924 6925 6926 
6927 6928 6929 6930 6931 6932 6933 6934 6935 
6936 6937 6938 6939 6940 6941 6942 6943 6944 
6945 6946 6947 6948 6949 6950 6951 6952 6953 
6954 6955 6956 6957 6958 6959 6960 6961 6962 
6963 6964 6965 6966 6967 6968 6969 6970 6971 
6972 6973 6974 6975 6976 6977 6978 6979 6980 
6981 6982 6983 6984 6985 6986 6987 6988 6989 
6990 6991 6992 6993 6994 6995 6996 6997 6998 
6999 7000 7001 7002 7003 7004 7005 7006 7007 
7008 7009 7010 7011 7012 7013 7014 7015 7016 
7017 7018 7019 7020 7021 7022 7023 7024 7025 
7026 7027 7028 7029 7030 7031 7032 7033 7034 
7035 7036 7037 7038 7039 7040 7041 7042 7043 
7044 7045 7046 7047 7048 7049 7050 7051 7052 
7053 7054 7055 7056 7057 7058 7059 7060 7061 
7062 7063 7064 7065 7066 7067 7068 7069 7070 
7071 7072 7073 7074 7075 7076 7077 7078 7079 
7080 7081 7082 7083 7084 7085 7086 7087 7088 
7089 7090 7091 7092 7093 7094 7095 7096 7097 
7098 7099 7100 7101 7102 7103 7104 7105 7106 
7107 7108 7109 7110 7111 7112 7113 7114 7115 
7116 7117 7118 7119 7120 7121 7122 7123 7124 
7125 7126 7127 7128 7129 7130 7131 7132 7133 
7134 7135 7136 7137 7138 7139 7140 7141 7142 
7143 7144 7145 7146 7147 7148 7149 7150 7151 
7152 7153 7154 7155 7156 7157 7158 7159 7160 
7161 7162 7163 7164 7165 7166 7167 7168 7169 
7170 7171 7172 7173 7174 7175 7176 7177 7178 
7179 7180 7181 7182 7183 7184 7185 7186 7187 
7188 7189 7190 7191 7192 7193 7194 7195 7196 
7197 7198 7199 7200 7201 7202 7203 7204 7205 
7206 7207 7208 7209 7210 7211 7212 7213 7214 
7215 7216 7217 7218 7219 7220 7221 7222 7223 
7224 7225 7226 7227 7228 7229 7230 7231 7232 
7233 7234 7235 7236 7237 7238 7239 7240 7241 
7242 7243 7244 7245 7246 7247 7248 7249 7250 
7251 7252 7253 7254 7255 7256 7257 7258 7259 
7260 7261 7262 7263 7264 7265 7266 7267 7268 
7269 7270 7271 7272 7273 7274 7275 7276 7277 
7278 7279 7280 7281 7282 7283 7284 7285 7286 
7287 7288 7289 7290 7291 7292 7293 7294 7295 
7296 7297 7298 7299 7300 7301 7302 7303 7304 
7305 7306 7307 7308 7309 7310 7311 7312 7313 
7314 7315 7316 7317 7318 7319 7320 7321 7322 
7323 7324 7325 7326 7327 7328 7329 7330 7331 
7332 7333 7334 7335 7336 7337 7338 7339 7340 
7341 7342 7343 7344 7345 7346 7347 7348 7349 
7350 7351 7352 7353 7354 7355 7356 7357 7358 
7359 7360 7361 7362 7363 7364 7365 7366 7367 
7368 7369 7370 7371 7372 7373 7374 7375 7376 
7377 7378 7379 7380 7381 7382 7383 7384 7385 
7386 7387 7388 7389 7390 7391 7392 7393 7394 
7395 7396 7397 7398 7399 7400 7401 7402 7403 
7404 7405 7406 7407 7408 7409 
POINT_DATA 4180
FIELD FieldData 1
vtkOriginalPointIds 1 4180 vtkIdType
15 16 17 18 19 20 21 22 23 
24 55 56 57 58 59 60 61 62 
63 64 95 96 97 98 99 100 101 
102 103 104 135 136 137 138 139 140 
141 142 143 144 175 176 177 178 179 
180 181 182 183 184 215 216 217 218 
219 220 221 222 223 224 255 256 257 
258 259 260 261 262 263 264 295 296 
297 298 299 300 301 302 303 304 335 
336 337 338 339 340 341 342 343 344 
375 376 377 378 379 380 381 382 383 
384 415 416 417 418 419 420 421 422 
423 424 455 456 457 458 459 460 461 
462 463 464 495 496 497 498 499 500 
501 502 503 504 535 536 537 538 539 
540 541 542 543 544 575 576 577 578 
579 580 581 582 583 584 615 616 617 
618 619 620 621 622 623 624 655 656 
657 658 659 660 661 662 663 664 695 
696 697 698 699 700 701 702 703 704 
735 736 737 738 739 740 741 742 743 
744 775 776 777 778 779 780 781 782 
783 784 815 816 817 818 819 820 821 
822 823 824 855 856 857 858 859 860 
861 862 863 864 895 896 897 898 899 
900 901 902 903 904 935 936 937 938 
939 940 941 942 943 944 975 976 977 
978 979 980 981 982 983 984 1015 1016 
1017 1018 1019 1020 1021 1022 1023 1024 1055 
1056 1057 1058 1059 1060 1061 1062 1063 1064 
1095 1096 1097 1098 1099 1100 1101 1102 1103 
1104 1135 1136 1137 1138 1139 1140 1141 1142 
1143 1144 1175 1176 1177 1178 1179 1180 1181 
1182 1183 1184 1215 1216 1217 1218 1219 1220 
1221 1222 1223 1224 1255 1256 1257 1258 1259 
1260 1261 1262 1263 1264 1295 1296 1297 1298 
1299 1300 1301 1302 1303 1304 1335 1336 1337 
1338 1339 1340 1341 1342 1343 1344 1375 1376 
1377 1378 1379 1380 1381 1382 1383 1384 1415 
1416 1417 1418 1419 1420 1421 1422 1423 1424 
1455 1456 1457 1458 1459 1460 1461 1462 1463 
1464 1495 1496 1497 1498 1499 1500 1501 1502 
1503 1504 1535 1536 1537 1538 1539 1540 1541 
1542 1543 1544 1575 1576 1577 1578 1579 1580 
1581 1582 1583 1584 1615 1616 1617 1618 1619 
1620 1621 1622 1623 1624 1655 1656 1657 1658 
1659 1660 1661 1662 1663 1664 1695 1696 1697 
1698 1699 1700 1701 1702 1703 1704 1735 1736 
1737 1738 1739 1740 1741 1742 1743 1744 1775 
1776 1777 1778 1779 1780 1781 1782 1783 1784 
1815 1816 1817 1818 1819 1820 1821 1822 1823 
1824 1855 1856 1857 1858 1859 1860 1861 1862 
1863 1864 1895 1896 1897 1898 1899 1900 1901 
1902 1903 1904 1935 1936 1937 1938 1939 1940 
1941 1942 1943 1944 1975 1976 1977 1978 1979 
1980 1981 1982 1983 1984 2015 2016 2017 2018 
2019 2020 2021 2022 2023 2024 2055 2056 2057 
2058 2059 2060 2061 2062 2063 2064 2095 2096 
2097 2098 2099 2100 2101 2102 2103 2104 2135 
2136 2137 2138 2139 2140 2141 2142 2143 2144 
2175 2176 2177 2178 2179 2180 2181 2182 2183 
2184 2215 2216 2217 2218 2219 2220 2221 2222 
2223 2224 2255 2256 2257 2258 2259 2260 2261 
2262 2263 2264 2295 2296 2297 2298 2299 2300 
2301 2302 2303 2304 2335 2336 2337 2338 2339 
2340 2341 2342 2343 2344 2375 2376 2377 2378 
2379 2380 2381 2382 2383 2384 2415 2416 2417 
2418 2419 2420 2421 2422 2423 2424 2455 2456 
2457 2458 2459 2460 2461 2462 2463 2464 2495 
2496 2497 2498 2499 2500 2501 2502 2503 2504 
2535 2536 2537 2538 2539 2540 2541 2542 2543 
2544 2575 2576 2577 2578 2579 2580 2581 2582 
2583 2584 2615 2616 2617 2618 2619 2620 2621 
2622 2623 2624 2655 2656 2657 2658 2659 2660 
2661 2662 2663 2664 2695 2696 2697 2698 2699 
2700 2701 2702 2703 2704 2735 2736 2737 2738 
2739 2740 2741 2742 2743 2744 2775 2776 2777 
2778 2779 2780 2781 2782 2783 2784 2815 2816 
2817 2818 2819 2820 2821 2822 2823 2824 2855 
2856 2857 2858 2859 2860 2861 2862 2863 2864 
2895 2896 2897 2898 2899 2900 2901 2902 2903 
2904 2935 2936 2937 2938 2939 2940 2941 2942 
2943 2944 2975 2976 2977 2978 2979 2980 2981 
2982 2983 2984 3015 3016 3017 3018 3019 3020 
3021 3022 3023 3024 3055 3056 3057 3058 3059 
3060 3061 3062 3063 3064 3095 3096 3097 3098 